8
	Energy:      -4.7343653
C         -5.46613        2.95469        0.00000
C         -3.95407        2.95469        0.00000
H         -5.85050        2.43334        0.88175
H         -5.85050        2.45175       -0.89237
H         -5.85050        3.97897        0.01063
H         -3.56970        1.93040       -0.01063
H         -3.56970        3.45763        0.89237
H         -3.56970        3.47603       -0.88175
